0.45 	5.6 	1.7 	0.99802411 	1.9165787
0.45 	4.1 	1.5 	0.98076153 	1.743426
0.45 	2.6 	1.3 	0.99869834 	0.54587493
