1.8367279 0.50610786
1.8377295 0.49068601
