0.45 	5.6 	1.7 	0.99954996 	1.8502006
0.45 	4.1 	1.5 	0.99016455 	1.9351157
0.45 	2.6 	1.3 	0.99881856 	0.65038104
