1.8287145 0.50408185
1.8297162 0.4959397
