0.45 	5.6 	1.7 	0.9975251 	2.1198117
0.45 	4.1 	1.5 	0.99992447 	1.3888359
0.45 	2.6 	1.3 	0.99882793 	0.55744614
