1.8287145 0.50321443
1.8297162 0.49243498
