40 1.82922
40.1 1.83712
40.2 1.82901
40.3 1.82947
40.4 1.81566
40.5 1.80319
40.6 1.79295
40.7 1.80215
40.8 1.80552
40.9 1.81385
41 1.78009
