0.45 	5.6 	1.7 	0.9972117 	2.2717598
0.45 	4.1 	1.5 	0.99968338 	1.3440073
0.45 	2.6 	1.3 	0.99851415 	0.56970738
