1.8287145 0.51065842
1.8297162 0.49643846
