0.45 	5.6 	1.7 	0.999889 	1.531091
0.45 	4.1 	1.5 	0.96916049 	1.9554925
0.45 	2.6 	1.3 	0.9999751 	0.56287311
