1.4 	0.99647882 	0.00062702959
1.4010017 	0.99449564 	0.11829061
1.4020033 	0.99251245 	0.23595419
1.403005 	0.99052927 	0.35361777
1.4040067 	0.98854609 	0.47128135
1.4050083 	0.9869411 	0.59253513
1.40601 	0.98581302 	0.71831616
1.4070117 	0.98468494 	0.8440972
1.4080134 	0.98355686 	0.96987823
1.409015 	0.98242878 	1.0956593
1.4100167 	0.98130069 	1.2214403
1.4110184 	0.98017261 	1.3472213
1.41202 	0.97864121 	1.4078345
1.4130217 	0.97683488 	1.424061
1.4140234 	0.97502854 	1.4402876
1.415025 	0.97322151 	1.4565206
1.4160267 	0.97141449 	1.4727536
1.4170284 	0.96960746 	1.4889865
1.4180301 	0.96780044 	1.5052195
1.4190317 	0.96602807 	1.5218818
1.4200334 	0.96470881 	1.5441564
1.4210351 	0.96338956 	1.566431
1.4220367 	0.9620703 	1.5887056
1.4230384 	0.96075028 	1.6109872
1.4240401 	0.95957049 	1.6326726
1.4250417 	0.96161752 	1.6410118
1.4260434 	0.96366454 	1.649351
1.4270451 	0.96571156 	1.6576902
1.4280467 	0.96775859 	1.6660295
1.4290484 	0.96980561 	1.6743687
1.4300501 	0.96849697 	1.6783232
1.4310518 	0.96702929 	1.6820698
1.4320534 	0.96556162 	1.6858165
1.4330551 	0.96409394 	1.6895631
1.4340568 	0.96262626 	1.6933098
1.4350584 	0.96115859 	1.6970565
1.4360601 	0.95969091 	1.7008031
1.4370618 	0.95822323 	1.7045498
1.4380634 	0.95675556 	1.7082965
1.4390651 	0.95528788 	1.7120431
1.4400668 	0.95662962 	1.7134306
1.4410684 	0.9585497 	1.7143323
1.4420701 	0.96046978 	1.7152341
1.4430718 	0.96238986 	1.7161359
1.4440735 	0.96430995 	1.7170376
1.4450751 	0.96623003 	1.7179394
1.4460768 	0.96815011 	1.7188412
1.4470785 	0.97007019 	1.7197429
1.4480801 	0.97199028 	1.7206447
1.4490818 	0.97391036 	1.7215465
1.4500835 	0.97574627 	1.7223741
1.4510851 	0.97756463 	1.7231699
1.4520868 	0.979383 	1.7239658
1.4530885 	0.98120136 	1.7247617
1.4540902 	0.9830179 	1.7255574
1.4550918 	0.98483436 	1.7263531
1.4560935 	0.98665081 	1.7271488
1.4570952 	0.98846727 	1.7279445
1.4580968 	0.99028373 	1.7287402
1.4590985 	0.99210018 	1.7295359
1.4601002 	0.99297415 	1.7300763
1.4611018 	0.99339904 	1.7304952
1.4621035 	0.99382392 	1.730914
1.4631052 	0.99424881 	1.7313328
1.4641068 	0.99467369 	1.7317516
1.4651085 	0.99509857 	1.7321704
1.4661102 	0.99552346 	1.7325892
1.4671119 	0.99594834 	1.733008
1.4681135 	0.99637322 	1.7334268
1.4691152 	0.99679811 	1.7338457
1.4701169 	0.99710504 	1.7340947
1.4711185 	0.99734998 	1.7342544
1.4721202 	0.99759491 	1.7344142
1.4731219 	0.99783985 	1.7345739
1.4741235 	0.99808496 	1.7347339
1.4751252 	0.99822325 	1.7346732
1.4761269 	0.99824843 	1.7343764
1.4771285 	0.99827362 	1.7340796
1.4781302 	0.9982988 	1.7337829
1.4791319 	0.99832398 	1.7334861
1.4801336 	0.99838905 	1.7337292
1.4811352 	0.99853098 	1.7350121
1.4821369 	0.99867291 	1.736295
1.4831386 	0.99881484 	1.7375779
1.4841402 	0.99895677 	1.7388608
1.4851419 	0.9990987 	1.7401438
1.4861436 	0.99924063 	1.7414267
1.4871452 	0.99938256 	1.7427096
1.4881469 	0.99952449 	1.7439925
1.4891486 	0.99966642 	1.7452754
1.4901503 	0.99976473 	1.7464047
1.4911519 	0.99977409 	1.7472209
1.4921536 	0.99978345 	1.748037
1.4931553 	0.99979281 	1.7488532
1.4941569 	0.99980217 	1.7496694
1.4951586 	0.99981153 	1.7504855
1.4961603 	0.99982089 	1.7513017
1.4971619 	0.99983025 	1.7521178
1.4981636 	0.99983961 	1.752934
1.4991653 	0.99984897 	1.7537501
1.5001669 	0.9998573 	1.7548379
1.5011686 	0.99986286 	1.7563604
1.5021703 	0.99986842 	1.7578828
1.503172 	0.99987398 	1.7594053
1.5041736 	0.99987954 	1.7609277
1.5051753 	0.9998851 	1.7624502
1.506177 	0.99989066 	1.7639727
1.5071786 	0.99989622 	1.7654951
1.5081803 	0.99990178 	1.7670176
1.509182 	0.99990734 	1.76854
1.5101836 	0.99991059 	1.7700267
1.5111853 	0.9999107 	1.7714648
1.512187 	0.99991082 	1.7729028
1.5131886 	0.99991093 	1.7743408
1.5141903 	0.99991104 	1.7757789
1.515192 	0.99991115 	1.7772169
1.5161937 	0.99991126 	1.7786549
1.5171953 	0.99991137 	1.780093
1.518197 	0.99991148 	1.781531
1.5191987 	0.99991159 	1.782969
1.5202003 	0.99989487 	1.7840966
1.521202 	0.99986168 	1.7849203
1.5222037 	0.9998285 	1.7857441
1.5232053 	0.99979531 	1.7865679
1.524207 	0.99976213 	1.7873917
1.5252087 	0.99965682 	1.7884771
1.5262104 	0.99938147 	1.7901867
1.527212 	0.99910613 	1.7918963
1.5282137 	0.99883078 	1.7936059
1.5292154 	0.99855544 	1.7953155
1.530217 	0.99831864 	1.7971087
1.5312187 	0.99831425 	1.7994063
1.5322204 	0.99830985 	1.8017039
1.533222 	0.99830545 	1.8040015
1.5342237 	0.99830106 	1.8062991
1.5352254 	0.99829666 	1.8085966
1.536227 	0.99829226 	1.8108942
1.5372287 	0.99828787 	1.8131918
1.5382304 	0.99828347 	1.8154894
1.5392321 	0.99827907 	1.817787
1.5402337 	0.99827446 	1.8202691
1.5412354 	0.99826911 	1.8233668
1.5422371 	0.99826376 	1.8264646
1.5432387 	0.99825841 	1.8295624
1.5442404 	0.99825306 	1.8326602
1.5452421 	0.99824771 	1.835758
1.5462437 	0.99824236 	1.8388557
1.5472454 	0.99823701 	1.8419535
1.5482471 	0.99823166 	1.8450513
1.5492487 	0.99822631 	1.8481491
1.5502504 	0.99822142 	1.8515318
1.5512521 	0.99821668 	1.8555091
1.5522538 	0.99821194 	1.8594864
1.5532554 	0.9982072 	1.8634637
1.5542571 	0.99820246 	1.867441
1.5552588 	0.99819772 	1.8714184
1.5562604 	0.99819298 	1.8753957
1.5572621 	0.99818824 	1.879373
1.5582638 	0.9981835 	1.8833503
1.5592654 	0.99817876 	1.8873276
1.5602671 	0.99815043 	1.8911052
1.5612688 	0.99808871 	1.8946
1.5622705 	0.99802699 	1.8980948
1.5632721 	0.99796527 	1.9015896
1.5642738 	0.99790355 	1.9050844
1.5652755 	0.99784183 	1.9085793
1.5662771 	0.99778011 	1.9120741
1.5672788 	0.99771839 	1.9155689
1.5682805 	0.99765667 	1.9190637
1.5692821 	0.99759494 	1.9225585
1.5702838 	0.99741751 	1.925928
1.5712855 	0.99713911 	1.9291881
1.5722871 	0.99686071 	1.9324481
1.5732888 	0.99658231 	1.9357082
1.5742905 	0.99630391 	1.9389683
1.5752922 	0.99612107 	1.9420861
1.5762938 	0.9961089 	1.9447321
1.5772955 	0.99609674 	1.9473781
1.5782972 	0.99608457 	1.9500241
1.5792988 	0.9960724 	1.9526701
1.5803005 	0.99604299 	1.9555155
1.5813022 	0.99590355 	1.9596344
1.5823038 	0.9957641 	1.9637532
1.5833055 	0.99562465 	1.9678721
1.5843072 	0.99548521 	1.9719909
1.5853088 	0.99534576 	1.9761098
1.5863105 	0.99520631 	1.9802286
1.5873122 	0.99506687 	1.9843475
1.5883139 	0.99492742 	1.9884663
1.5893155 	0.99478797 	1.9925852
1.5903172 	0.99452132 	1.9963411
1.5913189 	0.99388871 	1.9990528
1.5923205 	0.9932561 	2.0017644
1.5933222 	0.99262349 	2.0044761
1.5943239 	0.99199087 	2.0071877
1.5953255 	0.99135826 	2.0098994
1.5963272 	0.99072565 	2.0126111
1.5973289 	0.99009304 	2.0153227
1.5983306 	0.98946042 	2.0180344
1.5993322 	0.98882781 	2.020746
1.6003339 	0.98827648 	2.0236343
1.6013356 	0.98778475 	2.0269431
1.6023372 	0.98729302 	2.030252
1.6033389 	0.98680129 	2.0335609
1.6043406 	0.98630956 	2.0368697
1.6053422 	0.98581783 	2.0401786
1.6063439 	0.9853261 	2.0434874
1.6073456 	0.98483437 	2.0467963
1.6083472 	0.98434264 	2.0501051
1.6093489 	0.98385091 	2.053414
1.6103506 	0.98343503 	2.0557335
1.6113523 	0.9831051 	2.0569318
1.6123539 	0.98277517 	2.0581301
1.6133556 	0.98244523 	2.0593285
1.6143573 	0.9821153 	2.0605268
1.6153589 	0.98178537 	2.0617252
1.6163606 	0.98145544 	2.0629235
1.6173623 	0.9811255 	2.0641219
1.6183639 	0.98079557 	2.0653202
1.6193656 	0.98046564 	2.0665186
1.6203673 	0.98027148 	2.0672981
1.6213689 	0.98016622 	2.0678035
1.6223706 	0.98006096 	2.0683089
1.6233723 	0.9799557 	2.0688142
1.624374 	0.97985045 	2.0693196
1.6253756 	0.97971669 	2.068982
1.6263773 	0.97952281 	2.0670246
1.627379 	0.97932894 	2.0650672
1.6283806 	0.97913507 	2.0631098
1.6293823 	0.97894119 	2.0611524
1.630384 	0.97879369 	2.0598554
1.6313856 	0.97885213 	2.0614914
1.6323873 	0.97891056 	2.0631273
1.633389 	0.97896899 	2.0647632
1.6343907 	0.97902743 	2.0663991
1.6353923 	0.97908586 	2.0680351
1.636394 	0.97914429 	2.069671
1.6373957 	0.97920273 	2.0713069
1.6383973 	0.97926116 	2.0729428
1.639399 	0.97931959 	2.0745787
1.6404007 	0.97942168 	2.074968
1.6414023 	0.97961639 	2.0727112
1.642404 	0.97981111 	2.0704545
1.6434057 	0.98000582 	2.0681978
1.6444073 	0.98020054 	2.0659411
1.645409 	0.98039526 	2.0636844
1.6464107 	0.98058997 	2.0614277
1.6474124 	0.98078469 	2.0591709
1.648414 	0.9809794 	2.0569142
1.6494157 	0.98117412 	2.0546575
1.6504174 	0.98152833 	2.0525916
1.651419 	0.98217459 	2.050783
1.6524207 	0.98282086 	2.0489744
1.6534224 	0.98346712 	2.0471657
1.654424 	0.98411339 	2.0453571
1.6554257 	0.98475965 	2.0435485
1.6564274 	0.98540591 	2.0417398
1.657429 	0.98605218 	2.0399312
1.6584307 	0.98669844 	2.0381226
1.6594324 	0.98734471 	2.0363139
1.6604341 	0.98781094 	2.0323997
1.6614357 	0.98812493 	2.0267048
1.6624374 	0.98843892 	2.0210099
1.6634391 	0.9887529 	2.015315
1.6644407 	0.98906689 	2.0096201
1.6654424 	0.98938088 	2.0039251
1.6664441 	0.98969486 	1.9982302
1.6674457 	0.99000885 	1.9925353
1.6684474 	0.99032284 	1.9868404
1.6694491 	0.99063683 	1.9811455
1.6704508 	0.99095074 	1.9766836
1.6714524 	0.99126462 	1.9727911
1.6724541 	0.99157851 	1.9688986
1.6734558 	0.99189239 	1.9650061
1.6744574 	0.99220627 	1.9611136
1.6754591 	0.99257878 	1.9571576
1.6764608 	0.99306051 	1.9532192
1.6774624 	0.99354224 	1.9492809
1.6784641 	0.99402397 	1.9453425
1.6794658 	0.9945057 	1.9414042
1.6804674 	0.99496812 	1.9371869
1.6814691 	0.99537319 	1.932141
1.6824708 	0.99577827 	1.9270951
1.6834725 	0.99618334 	1.9220492
1.6844741 	0.99658841 	1.9170033
1.6854758 	0.99699348 	1.9119574
1.6864775 	0.99739855 	1.9069115
1.6874791 	0.99780362 	1.9018657
1.6884808 	0.99820869 	1.8968198
1.6894825 	0.99861376 	1.8917739
1.6904841 	0.99886431 	1.8859591
1.6914858 	0.99887779 	1.8789648
1.6924875 	0.99889126 	1.8719706
1.6934891 	0.99890474 	1.8649763
1.6944908 	0.99891822 	1.857982
1.6954925 	0.9989317 	1.8509877
1.6964942 	0.99894517 	1.8439934
1.6974958 	0.99895865 	1.8369991
1.6984975 	0.99897213 	1.8300048
1.6994992 	0.9989856 	1.8230105
1.7005008 	0.99901413 	1.8164119
1.7015025 	0.99904283 	1.8097987
1.7025042 	0.99907152 	1.8031855
1.7035058 	0.99910022 	1.7965723
1.7045075 	0.99912892 	1.789959
1.7055092 	0.99915761 	1.7833458
1.7065109 	0.99918631 	1.7767326
1.7075125 	0.999215 	1.7701194
1.7085142 	0.9992437 	1.7635062
1.7095159 	0.99927239 	1.7568929
1.7105175 	0.99928786 	1.7499002
1.7115192 	0.99929524 	1.7426753
1.7125209 	0.99930261 	1.7354505
1.7135225 	0.99930999 	1.7282257
1.7145242 	0.99931737 	1.7210008
1.7155259 	0.99932475 	1.713776
1.7165275 	0.99933212 	1.7065511
1.7175292 	0.9993395 	1.6993263
1.7185309 	0.99934688 	1.6921015
1.7195326 	0.99935426 	1.6848766
1.7205342 	0.99944663 	1.6803465
1.7215359 	0.99956505 	1.676642
1.7225376 	0.99968347 	1.6729376
1.7235392 	0.99980188 	1.6692332
1.7245409 	0.9999203 	1.6655287
1.7255426 	0.99919787 	1.6611773
1.7265442 	0.99766988 	1.6565548
1.7275459 	0.9961419 	1.6519323
1.7285476 	0.99461391 	1.6473099
1.7295492 	0.99308593 	1.6426874
1.7305509 	0.99205981 	1.6373019
1.7315526 	0.99205766 	1.6303599
1.7325543 	0.9920555 	1.6234178
1.7335559 	0.99205334 	1.6164757
1.7345576 	0.99205118 	1.6095337
1.7355593 	0.99204903 	1.6025916
1.7365609 	0.99204687 	1.5956495
1.7375626 	0.99204471 	1.5887075
1.7385643 	0.99204255 	1.5817654
1.7395659 	0.99204039 	1.5748233
1.7405676 	0.9909283 	1.5689488
1.7415693 	0.98858448 	1.564259
1.742571 	0.98624065 	1.5595692
1.7435726 	0.98389682 	1.5548794
1.7445743 	0.98155299 	1.5501896
1.745576 	0.97920916 	1.5454998
1.7465776 	0.97686533 	1.54081
1.7475793 	0.97452151 	1.5361202
1.748581 	0.97217768 	1.5314304
1.7495826 	0.96983385 	1.5267407
1.7505843 	0.96554128 	1.5223497
1.751586 	0.95941789 	1.5185841
1.7525876 	0.95329449 	1.5148185
1.7535893 	0.94717109 	1.5110529
1.754591 	0.9410477 	1.5072873
1.7555927 	0.9349243 	1.5035217
1.7565943 	0.9288009 	1.4997561
1.757596 	0.92267751 	1.4959905
1.7585977 	0.91655411 	1.4922249
1.7595993 	0.91043071 	1.4884593
1.760601 	0.89152583 	1.4879775
1.7616027 	0.86717572 	1.4888946
1.7626043 	0.8428256 	1.4898117
1.763606 	0.81847549 	1.4907288
1.7646077 	0.79412537 	1.4916459
1.7656093 	0.76977525 	1.4925631
1.766611 	0.74542514 	1.4934802
1.7676127 	0.72107502 	1.4943973
1.7686144 	0.6967249 	1.4953144
1.769616 	0.67237479 	1.4962315
1.7706177 	0.65680445 	1.4949181
1.7716194 	0.64283278 	1.4931985
1.772621 	0.62886111 	1.4914788
1.7736227 	0.61488943 	1.4897592
1.7746244 	0.60091776 	1.4880396
1.775626 	0.58393669 	1.4908099
1.7766277 	0.56543298 	1.4965554
1.7776294 	0.54692928 	1.5023008
1.7786311 	0.52842557 	1.5080463
1.7796327 	0.50992186 	1.5137918
1.7806344 	0.48801834 	1.5175668
1.7816361 	0.46125136 	1.5185229
1.7826377 	0.43448438 	1.5194791
1.7836394 	0.4077174 	1.5204352
1.7846411 	0.38095042 	1.5213914
1.7856427 	0.35418345 	1.5223475
1.7866444 	0.32741647 	1.5233037
1.7876461 	0.30064949 	1.5242598
1.7886477 	0.27388251 	1.525216
1.7896494 	0.24711553 	1.5261721
1.7906511 	0.22937706 	1.5281508
1.7916528 	0.21884806 	1.5309461
1.7926544 	0.20831907 	1.5337414
1.7936561 	0.19779007 	1.5365367
1.7946578 	0.18726108 	1.539332
1.7956594 	0.17673208 	1.5421273
1.7966611 	0.16620309 	1.5449226
1.7976628 	0.15567409 	1.5477178
1.7986644 	0.14514509 	1.5505131
1.7996661 	0.1346161 	1.5533084
1.8006678 	0.12357079 	1.5598064
1.8016694 	0.11357414 	1.5677292
1.8026711 	0.10357749 	1.5756521
1.8036728 	0.093580842 	1.5835749
1.8046745 	0.083584192 	1.5914977
1.8056761 	0.073587542 	1.5994206
1.8066778 	0.063590892 	1.6073434
1.8076795 	0.053594242 	1.6152662
1.8086811 	0.043597592 	1.6231891
1.8096828 	0.033600942 	1.6311119
1.8106845 	0.031421861 	1.6431847
1.8116861 	0.031414791 	1.6564105
1.8126878 	0.03140772 	1.6696363
1.8136895 	0.03140065 	1.6828621
1.8146912 	0.03139358 	1.6960879
1.8156928 	0.031386509 	1.7093137
1.8166945 	0.031379439 	1.7225395
1.8176962 	0.031372368 	1.7357653
1.8186978 	0.031365298 	1.7489911
1.8196995 	0.031358227 	1.7622169
1.8207012 	0.02575983 	1.7748348
1.8217028 	0.019699174 	1.7874025
1.8227045 	0.013638518 	1.7999702
1.8237062 	0.0075778626 	1.8125378
1.8247078 	0.0015172069 	1.8251055
