1.7796327 0.50992186
1.7806344 0.48801834
