0.45 	5.6 	1.7 	0.9997134 	2.0054394
0.45 	4.1 	1.5 	0.99983574 	1.5417414
0.45 	2.6 	1.3 	0.99058763 	0.74940003
