1.8146912 0.52869539
1.8156928 0.49899978
