3_ymax_patch	0.0868745277227723
ymin	0.0891429172673267
