40	0.07498513
40.1	0.070977885
40.2	0.071484494
40.3	0.077979854
40.4	0.082377494
40.5	0.0933395
40.6	0.10472269
40.7	0.10537624
40.8	0.091840193
40.9	0.077661316
41	0.072038753
41.1	0.079018075
41.2	0.082750272
41.3	0.094084139
41.4	0.10521341
41.5	0.11087602
41.6	0.10434224
41.7	0.097773144
41.8	0.096617964
41.9	0.093317938
42	0.094358578
42.1	0.093338216
42.2	0.089382928
42.3	0.088659096
42.4	0.085714541
42.5	0.074193239
42.6	0.059144174
42.7	0.051289184
42.8	0.052375342
42.9	0.055121857
43	0.059612792
43.1	0.070885756
43.2	0.078969072
43.3	0.084617971
43.4	0.098258143
43.5	0.096608331
43.6	0.099931265
43.7	0.10000399
43.8	0.10504249
43.9	0.10298368
44	0.096012958
44.1	0.090967282
44.2	0.088962385
44.3	0.090501954
44.4	0.094078405
44.5	0.10586725
44.6	0.12379573
44.7	0.11909809
44.8	0.11932468
44.9	0.1201519
45	0.11381779
45.1	0.099994704
45.2	0.083229519
45.3	0.079669625
45.4	0.086457351
45.5	0.082317409
45.6	0.080843392
45.7	0.087989959
45.8	0.089393801
45.9	0.094580116
46	0.09567033
46.1	0.083438303
46.2	0.080661948
46.3	0.086012038
46.4	0.081599674
46.5	0.069585047
46.6	0.059771462
46.7	0.050710625
46.8	0.049605047
46.9	0.053770137
47	0.059494489
47.1	0.06647772
47.2	0.069842214
47.3	0.071195383
47.4	0.075784045
47.5	0.086801097
47.6	0.091068051
47.7	0.093078531
47.8	0.091403993
47.9	0.089374899
48	0.089471045
48.1	0.095058842
48.2	0.1054404
48.3	0.11255144
48.4	0.1172206
48.5	0.12225975
48.6	0.12462702
48.7	0.1175769
48.8	0.10664991
48.9	0.096080384
49	0.097519721
49.1	0.1033189
49.2	0.11164334
49.3	0.1100069
49.4	0.10176012
49.5	0.1003364
49.6	0.092071025
49.7	0.079549366
49.8	0.076855791
49.9	0.079814641
50	0.08395542
