40	0.087032149
40.1	0.087197022
40.2	0.087274317
40.3	0.087369548
40.4	0.087168304
40.5	0.086726597
40.6	0.086333929
40.7	0.086155439
40.8	0.086135218
40.9	0.085895849
41	0.085663417
41.1	0.085626088
41.2	0.085822825
41.3	0.08621531
41.4	0.086536454
41.5	0.086728852
41.6	0.086895508
41.7	0.087048301
41.8	0.087196413
41.9	0.087391674
42	0.087639621
42.1	0.087802533
42.2	0.087888929
42.3	0.08805244
42.4	0.088243458
42.5	0.088416504
42.6	0.088629442
42.7	0.088869764
42.8	0.088887603
42.9	0.08872472
43	0.088516832
43.1	0.08834871
43.2	0.08819419
43.3	0.088063821
43.4	0.087906075
43.5	0.087673208
43.6	0.0875658
43.7	0.087717338
43.8	0.087691857
43.9	0.087327535
44	0.087085185
44.1	0.087011951
44.2	0.08687645
44.3	0.086508433
44.4	0.086199239
44.5	0.086114802
44.6	0.08612313
44.7	0.086108643
44.8	0.086130575
44.9	0.086159799
45	0.086198352
45.1	0.086359015
45.2	0.086539109
45.3	0.086753848
45.4	0.086753336
45.5	0.086613354
45.6	0.08648443
45.7	0.086504528
45.8	0.086665002
45.9	0.086849776
46	0.086941314
46.1	0.087207338
46.2	0.087432654
46.3	0.087512664
46.4	0.087550391
46.5	0.087485763
46.6	0.087448609
46.7	0.087406952
46.8	0.087415697
46.9	0.087497821
47	0.087510783
47.1	0.087365005
47.2	0.087206812
47.3	0.087101347
47.4	0.087048408
47.5	0.087113071
47.6	0.087052219
47.7	0.086882872
47.8	0.086685062
47.9	0.086365867
48	0.086375213
48.1	0.086548051
48.2	0.086699847
48.3	0.086775308
48.4	0.086742669
48.5	0.086497364
48.6	0.0861676
48.7	0.085781091
48.8	0.085500759
48.9	0.085379859
49	0.085341572
49.1	0.085233579
49.2	0.085129741
49.3	0.085091713
49.4	0.085316074
49.5	0.085745961
49.6	0.086053017
49.7	0.086205711
49.8	0.0862373
49.9	0.086308823
50	0.086353134
