40	0.0870321
40.1	0.087197
40.2	0.0872743
40.3	0.0873695
40.4	0.0871683
40.5	0.0867266
40.6	0.0863339
40.7	0.0861554
40.8	0.0861352
40.9	0.0858958
41	0.0856634
41.1	0.0856261
41.2	0.0858228
41.3	0.0862153
41.4	0.0865365
41.5	0.0867289
41.6	0.0868955
41.7	0.0870483
41.8	0.0871964
41.9	0.0873917
42	0.0876396
42.1	0.0878025
42.2	0.0878889
42.3	0.0880524
42.4	0.0882435
42.5	0.0884165
42.6	0.0886294
42.7	0.0888698
42.8	0.0888876
42.9	0.0887247
43	0.0885168
43.1	0.0883487
43.2	0.0881942
43.3	0.0880638
43.4	0.0879061
43.5	0.0876732
43.6	0.0875658
43.7	0.0877173
43.8	0.0876919
43.9	0.0873275
44	0.0870852
44.1	0.087012
44.2	0.0868764
44.3	0.0865084
44.4	0.0861992
44.5	0.0861148
44.6	0.0861231
44.7	0.0861086
44.8	0.0861306
44.9	0.0861598
45	0.0861984
45.1	0.086359
45.2	0.0865391
45.3	0.0867538
45.4	0.0867533
45.5	0.0866134
45.6	0.0864844
45.7	0.0865045
45.8	0.086665
45.9	0.0868498
46	0.0869413
46.1	0.0872073
46.2	0.0874327
46.3	0.0875127
46.4	0.0875504
46.5	0.0874858
46.6	0.0874486
46.7	0.087407
46.8	0.0874157
46.9	0.0874978
47	0.0875108
47.1	0.087365
47.2	0.0872068
47.3	0.0871013
47.4	0.0870484
47.5	0.0871131
47.6	0.0870522
47.7	0.0868829
47.8	0.0866851
47.9	0.0863659
48	0.0863752
48.1	0.0865481
48.2	0.0866998
48.3	0.0867753
48.4	0.0867427
48.5	0.0864974
48.6	0.0861676
48.7	0.0857811
48.8	0.0855008
48.9	0.0853799
49	0.0853416
49.1	0.0852336
49.2	0.0851297
49.3	0.0850917
49.4	0.0853161
49.5	0.085746
49.6	0.086053
49.7	0.0862057
49.8	0.0862373
49.9	0.0863088
50	0.0863531
