10	0.0875294
11	0.0862571
12	0.0829922
13	0.0895535
14	0.0882081
15	0.0900663
16	0.0895195
17	0.0871136
18	0.0889245
19	0.0872446
20	0.0895047
21	0.0863041
22	0.087806
23	0.0863513
24	0.0889184
25	0.0889239
26	0.0877312
27	0.0878702
28	0.0871606
29	0.0874224
30	0.0855962
