10	0.087529403
11	0.086257078
12	0.082992154
13	0.08955348
14	0.088208144
15	0.090066275
16	0.089519461
17	0.087113596
18	0.088924529
19	0.087244647
20	0.089504709
21	0.086304104
22	0.087805987
23	0.086351285
24	0.088918429
25	0.08892387
26	0.087731228
27	0.087870241
28	0.0871606
29	0.08742239
30	0.085596154
