10	0.072286422
11	0.073723513
12	0.10427298
13	0.049419266
14	0.11267935
15	0.097332379
16	0.10770724
17	0.0729503
18	0.079422594
19	0.067597942
20	0.092536857
21	0.080971769
22	0.077470343
23	0.11674765
24	0.089391696
25	0.096865409
26	0.066948933
27	0.066738101
28	0.094564851
29	0.072523018
30	0.084432625
