0.45 	5.6 	1.7 	0.99128558 	1.6242495
0.45 	4.1 	1.5 	0.99857729 	1.4284409
0.45 	2.6 	1.3 	0.99966111 	0.72519207
