1.8046745 0.52040051
1.8056761 0.49623784
