0.45 	5.6 	1.7 	0.98531264 	1.7724725
0.45 	4.1 	1.5 	0.99139197 	2.0671877
0.45 	2.6 	1.3 	0.99759569 	0.66724917
