1.8136895 0.50395843
1.8146912 0.47972299
