1.4 	0.98610884 	0.00083700331
1.4010017 	0.98438817 	0.15805116
1.4020033 	0.98266751 	0.31526532
1.403005 	0.98094684 	0.47247947
1.4040067 	0.97922618 	0.62969363
1.4050083 	0.97784248 	0.78296959
1.40601 	0.97688371 	0.93127945
1.4070117 	0.97592493 	1.0795893
1.4080134 	0.97496616 	1.2278992
1.409015 	0.97400739 	1.376209
1.4100167 	0.97304861 	1.5245189
1.4110184 	0.97208984 	1.6728288
1.41202 	0.97144168 	1.7407514
1.4130217 	0.97100859 	1.7539334
1.4140234 	0.97057546 	1.7671157
1.415025 	0.97014107 	1.7803022
1.4160267 	0.96970668 	1.7934887
1.4170284 	0.96927229 	1.8066752
1.4180301 	0.9688379 	1.8198617
1.4190317 	0.96835973 	1.8326662
1.4200334 	0.96730919 	1.8404764
1.4210351 	0.96625865 	1.8482867
1.4220367 	0.96520811 	1.856097
1.4230384 	0.96415618 	1.863912
1.4240401 	0.96325943 	1.8712418
1.4250417 	0.96588355 	1.8676956
1.4260434 	0.96850767 	1.8641493
1.4270451 	0.97113179 	1.8606031
1.4280467 	0.97375591 	1.8570568
1.4290484 	0.97638003 	1.8535105
1.4300501 	0.97740893 	1.8487725
1.4310518 	0.97836223 	1.843978
1.4320534 	0.97931552 	1.8391834
1.4330551 	0.98026882 	1.8343889
1.4340568 	0.98122211 	1.8295943
1.4350584 	0.98217541 	1.8247998
1.4360601 	0.98312871 	1.8200053
1.4370618 	0.984082 	1.8152107
1.4380634 	0.9850353 	1.8104162
1.4390651 	0.98598859 	1.8056216
1.4400668 	0.98641938 	1.800946
1.4410684 	0.98674261 	1.7962949
1.4420701 	0.98706584 	1.7916438
1.4430718 	0.98738906 	1.7869927
1.4440735 	0.98771229 	1.7823415
1.4450751 	0.98803552 	1.7776904
1.4460768 	0.98835875 	1.7730393
1.4470785 	0.98868197 	1.7683882
1.4480801 	0.9890052 	1.763737
1.4490818 	0.98932843 	1.7590859
1.4500835 	0.98980791 	1.7560459
1.4510851 	0.9903393 	1.7535712
1.4520868 	0.99087068 	1.7510965
1.4530885 	0.99140207 	1.7486218
1.4540902 	0.99193594 	1.7461446
1.4550918 	0.99246994 	1.7436672
1.4560935 	0.99300393 	1.7411899
1.4570952 	0.99353792 	1.7387125
1.4580968 	0.99407191 	1.7362352
1.4590985 	0.99460591 	1.7337578
1.4601002 	0.99468397 	1.7350222
1.4611018 	0.99454478 	1.7380696
1.4621035 	0.9944056 	1.7411169
1.4631052 	0.99426641 	1.7441643
1.4641068 	0.99412723 	1.7472116
1.4651085 	0.99398804 	1.7502589
1.4661102 	0.99384885 	1.7533063
1.4671119 	0.99370967 	1.7563536
1.4681135 	0.99357048 	1.759401
1.4691152 	0.99343129 	1.7624483
1.4701169 	0.99392168 	1.7635031
1.4711185 	0.99474299 	1.7635105
1.4721202 	0.99556431 	1.7635179
1.4731219 	0.99638563 	1.7635253
1.4741235 	0.99720819 	1.7635287
1.4751252 	0.9975905 	1.764611
1.4761269 	0.99750984 	1.766822
1.4771285 	0.99742918 	1.7690331
1.4781302 	0.99734852 	1.7712442
1.4791319 	0.99726786 	1.7734552
1.4801336 	0.9971623 	1.776261
1.4811352 	0.99700878 	1.7802129
1.4821369 	0.99685526 	1.7841649
1.4831386 	0.99670173 	1.7881168
1.4841402 	0.99654821 	1.7920687
1.4851419 	0.99639469 	1.7960207
1.4861436 	0.99624116 	1.7999726
1.4871452 	0.99608764 	1.8039245
1.4881469 	0.99593412 	1.8078765
1.4891486 	0.99578059 	1.8118284
1.4901503 	0.99560107 	1.8150929
1.4911519 	0.99536854 	1.8169559
1.4921536 	0.99513601 	1.8188189
1.4931553 	0.99490348 	1.8206818
1.4941569 	0.99467095 	1.8225448
1.4951586 	0.99443841 	1.8244078
1.4961603 	0.99420588 	1.8262707
1.4971619 	0.99397335 	1.8281337
1.4981636 	0.99374082 	1.8299967
1.4991653 	0.99350829 	1.8318597
1.5001669 	0.99332044 	1.8337096
1.5011686 	0.99321712 	1.8355171
1.5021703 	0.99311379 	1.8373247
1.503172 	0.99301046 	1.8391322
1.5041736 	0.99290713 	1.8409397
1.5051753 	0.9928038 	1.8427473
1.506177 	0.99270047 	1.8445548
1.5071786 	0.99259714 	1.8463623
1.5081803 	0.99249381 	1.8481699
1.509182 	0.99239049 	1.8499774
1.5101836 	0.99241503 	1.8507032
1.5111853 	0.99261364 	1.8499566
1.512187 	0.99281226 	1.84921
1.5131886 	0.99301087 	1.8484634
1.5141903 	0.99320948 	1.8477168
1.515192 	0.9934081 	1.8469702
1.5161937 	0.99360671 	1.8462236
1.5171953 	0.99380532 	1.845477
1.518197 	0.99400393 	1.8447304
1.5191987 	0.99420255 	1.8439837
1.5202003 	0.99433723 	1.8439506
1.521202 	0.99440937 	1.8446154
1.5222037 	0.99448151 	1.8452801
1.5232053 	0.99455365 	1.8459449
1.524207 	0.9946258 	1.8466097
1.5252087 	0.99472264 	1.8469815
1.5262104 	0.99483655 	1.8467979
1.527212 	0.99495045 	1.8466142
1.5282137 	0.99506436 	1.8464306
1.5292154 	0.99517827 	1.846247
1.530217 	0.99531889 	1.8460078
1.5312187 	0.99562056 	1.8454338
1.5322204 	0.99592223 	1.8448598
1.533222 	0.9962239 	1.8442858
1.5342237 	0.99652557 	1.8437117
1.5352254 	0.99682724 	1.8431377
1.536227 	0.99712892 	1.8425637
1.5372287 	0.99743059 	1.8419897
1.5382304 	0.99773226 	1.8414157
1.5392321 	0.99803393 	1.8408417
1.5402337 	0.99827047 	1.8403642
1.5412354 	0.99828967 	1.8402089
1.5422371 	0.99830886 	1.8400536
1.5432387 	0.99832806 	1.8398983
1.5442404 	0.99834725 	1.839743
1.5452421 	0.99836645 	1.8395877
1.5462437 	0.99838564 	1.8394323
1.5472454 	0.99840483 	1.839277
1.5482471 	0.99842403 	1.8391217
1.5492487 	0.99844322 	1.8389664
1.5502504 	0.99845811 	1.8388999
1.5512521 	0.9984788 	1.838982
1.5522538 	0.9984995 	1.839064
1.5532554 	0.99852019 	1.839146
1.5542571 	0.99854088 	1.839228
1.5552588 	0.99856157 	1.83931
1.5562604 	0.99858227 	1.8393921
1.5572621 	0.99860296 	1.8394741
1.5582638 	0.99862365 	1.8395561
1.5592654 	0.99864434 	1.8396381
1.5602671 	0.99864347 	1.8393265
1.5612688 	0.99861208 	1.8384576
1.5622705 	0.99858069 	1.8375886
1.5632721 	0.9985493 	1.8367197
1.5642738 	0.9985179 	1.8358507
1.5652755 	0.99848651 	1.8349818
1.5662771 	0.99845512 	1.8341129
1.5672788 	0.99842373 	1.8332439
1.5682805 	0.99839233 	1.832375
1.5692821 	0.99836094 	1.831506
1.5702838 	0.99832551 	1.8308647
1.5712855 	0.99828656 	1.8304219
1.5722871 	0.99824761 	1.8299791
1.5732888 	0.99820866 	1.8295363
1.5742905 	0.99816971 	1.8290936
1.5752922 	0.99812983 	1.8283456
1.5762938 	0.99808027 	1.8269892
1.5772955 	0.99803071 	1.8256328
1.5782972 	0.99798114 	1.8242764
1.5792988 	0.99793158 	1.8229201
1.5803005 	0.99789068 	1.8216451
1.5813022 	0.99790507 	1.8208901
1.5823038 	0.99791946 	1.820135
1.5833055 	0.99793385 	1.8193799
1.5843072 	0.99794823 	1.8186248
1.5853088 	0.99796262 	1.8178698
1.5863105 	0.99797701 	1.8171147
1.5873122 	0.9979914 	1.8163596
1.5883139 	0.99800579 	1.8156046
1.5893155 	0.99802017 	1.8148495
1.5903172 	0.99801611 	1.8138073
1.5913189 	0.99795894 	1.8119388
1.5923205 	0.99790177 	1.8100704
1.5933222 	0.99784461 	1.808202
1.5943239 	0.99778744 	1.8063335
1.5953255 	0.99773028 	1.8044651
1.5963272 	0.99767311 	1.8025967
1.5973289 	0.99761594 	1.8007283
1.5983306 	0.99755878 	1.7988598
1.5993322 	0.99750161 	1.7969914
1.6003339 	0.99743612 	1.7952779
1.6013356 	0.99732084 	1.7939201
1.6023372 	0.99720557 	1.7925623
1.6033389 	0.99709029 	1.7912045
1.6043406 	0.99697502 	1.7898467
1.6053422 	0.99685975 	1.788489
1.6063439 	0.99674447 	1.7871312
1.6073456 	0.9966292 	1.7857734
1.6083472 	0.99651392 	1.7844156
1.6093489 	0.99639865 	1.7830578
1.6103506 	0.99610172 	1.7814535
1.6113523 	0.99559896 	1.7795696
1.6123539 	0.99509621 	1.7776858
1.6133556 	0.99459345 	1.775802
1.6143573 	0.99409069 	1.7739182
1.6153589 	0.99358793 	1.7720344
1.6163606 	0.99308517 	1.7701506
1.6173623 	0.99258241 	1.7682668
1.6183639 	0.99207965 	1.766383
1.6193656 	0.99157689 	1.7644992
1.6203673 	0.9913126 	1.7626796
1.6213689 	0.99120446 	1.7609021
1.6223706 	0.99109631 	1.7591246
1.6233723 	0.99098816 	1.7573471
1.624374 	0.99088001 	1.7555695
1.6253756 	0.99082137 	1.7536333
1.6263773 	0.99083058 	1.7514588
1.627379 	0.99083978 	1.7492843
1.6283806 	0.99084899 	1.7471098
1.6293823 	0.99085819 	1.7449354
1.630384 	0.99077477 	1.7429357
1.6313856 	0.99028002 	1.7417125
1.6323873 	0.98978527 	1.7404893
1.633389 	0.98929052 	1.7392661
1.6343907 	0.98879577 	1.7380429
1.6353923 	0.98830103 	1.7368197
1.636394 	0.98780628 	1.7355965
1.6373957 	0.98731153 	1.7343733
1.6383973 	0.98681678 	1.7331501
1.639399 	0.98632203 	1.7319269
1.6404007 	0.98606625 	1.7302146
1.6414023 	0.98631762 	1.7274643
1.642404 	0.986569 	1.7247139
1.6434057 	0.98682038 	1.7219636
1.6444073 	0.98707176 	1.7192132
1.645409 	0.98732313 	1.7164629
1.6464107 	0.98757451 	1.7137125
1.6474124 	0.98782589 	1.7109622
1.648414 	0.98807727 	1.7082118
1.6494157 	0.98832865 	1.7054615
1.6504174 	0.98854059 	1.7029192
1.651419 	0.98874369 	1.7006026
1.6524207 	0.9889468 	1.6982861
1.6534224 	0.9891499 	1.6959696
1.654424 	0.98935301 	1.693653
1.6554257 	0.98955611 	1.6913365
1.6564274 	0.98975921 	1.68902
1.657429 	0.98996232 	1.6867034
1.6584307 	0.99016542 	1.6843869
1.6594324 	0.99036853 	1.6820704
1.6604341 	0.99069919 	1.6781609
1.6614357 	0.99113773 	1.6729044
1.6624374 	0.99157627 	1.6676479
1.6634391 	0.99201481 	1.6623914
1.6644407 	0.99245336 	1.6571349
1.6654424 	0.9928919 	1.6518784
1.6664441 	0.99333044 	1.6466218
1.6674457 	0.99376898 	1.6413653
1.6684474 	0.99420752 	1.6361088
1.6694491 	0.99464606 	1.6308523
1.6704508 	0.99488971 	1.6267129
1.6714524 	0.99504335 	1.6230893
1.6724541 	0.99519698 	1.6194658
1.6734558 	0.99535062 	1.6158423
1.6744574 	0.99550425 	1.6122188
1.6754591 	0.9956163 	1.607982
1.6764608 	0.99569168 	1.6032213
1.6774624 	0.99576706 	1.5984607
1.6784641 	0.99584244 	1.5937001
1.6794658 	0.99591782 	1.5889394
1.6804674 	0.99605989 	1.5841678
1.6814691 	0.99640001 	1.5793635
1.6824708 	0.99674013 	1.5745591
1.6834725 	0.99708025 	1.5697547
1.6844741 	0.99742037 	1.5649504
1.6854758 	0.99776049 	1.560146
1.6864775 	0.99810062 	1.5553417
1.6874791 	0.99844074 	1.5505373
1.6884808 	0.99878086 	1.545733
1.6894825 	0.99912098 	1.5409286
1.6904841 	0.99933163 	1.535916
1.6914858 	0.99934366 	1.5305837
1.6924875 	0.99935568 	1.5252515
1.6934891 	0.99936771 	1.5199193
1.6944908 	0.99937973 	1.5145871
1.6954925 	0.99939176 	1.5092549
1.6964942 	0.99940378 	1.5039226
1.6974958 	0.99941581 	1.4985904
1.6984975 	0.99942783 	1.4932582
1.6994992 	0.99943986 	1.487926
1.7005008 	0.99941101 	1.4834022
1.7015025 	0.99932833 	1.4799067
1.7025042 	0.99924565 	1.4764111
1.7035058 	0.99916297 	1.4729155
1.7045075 	0.99908029 	1.4694199
1.7055092 	0.99899761 	1.4659244
1.7065109 	0.99891493 	1.4624288
1.7075125 	0.99883225 	1.4589332
1.7085142 	0.99874957 	1.4554376
1.7095159 	0.99866689 	1.451942
1.7105175 	0.99807733 	1.4492154
1.7115192 	0.99717782 	1.4469589
1.7125209 	0.9962783 	1.4447025
1.7135225 	0.99537879 	1.442446
1.7145242 	0.99447928 	1.4401896
1.7155259 	0.99357976 	1.4379331
1.7165275 	0.99268025 	1.4356767
1.7175292 	0.99178073 	1.4334202
1.7185309 	0.99088122 	1.4311638
1.7195326 	0.9899817 	1.4289073
1.7205342 	0.98933857 	1.4243687
1.7215359 	0.988774 	1.4191306
1.7225376 	0.98820944 	1.4138926
1.7235392 	0.98764487 	1.4086546
1.7245409 	0.9870803 	1.4034165
1.7255426 	0.98423355 	1.3978469
1.7265442 	0.97914925 	1.391293
1.7275459 	0.97406495 	1.3847391
1.7285476 	0.96898066 	1.3781852
1.7295492 	0.96389636 	1.3716313
1.7305509 	0.96003191 	1.3662546
1.7315526 	0.95865633 	1.3632796
1.7325543 	0.95728075 	1.3603047
1.7335559 	0.95590517 	1.3573297
1.7345576 	0.95452959 	1.3543547
1.7355593 	0.953154 	1.3513798
1.7365609 	0.95177842 	1.3484048
1.7375626 	0.95040284 	1.3454298
1.7385643 	0.94902726 	1.3424548
1.7395659 	0.94765168 	1.3394799
1.7405676 	0.94577232 	1.3326596
1.7415693 	0.9433339 	1.321572
1.742571 	0.94089548 	1.3104844
1.7435726 	0.93845706 	1.2993968
1.7445743 	0.93601864 	1.2883092
1.745576 	0.93358022 	1.2772216
1.7465776 	0.9311418 	1.266134
1.7475793 	0.92870338 	1.2550464
1.748581 	0.92626496 	1.2439588
1.7495826 	0.92382655 	1.2328712
1.7505843 	0.92157458 	1.2227958
1.751586 	0.92029643 	1.2135973
1.7525876 	0.91901827 	1.2043989
1.7535893 	0.91774012 	1.1952004
1.754591 	0.91646196 	1.186002
1.7555927 	0.9151838 	1.1768035
1.7565943 	0.91390565 	1.1676051
1.757596 	0.91262749 	1.1584066
1.7585977 	0.91134933 	1.1492082
1.7595993 	0.91007118 	1.1400097
1.760601 	0.90768397 	1.1362894
1.7616027 	0.90482427 	1.1349029
1.7626043 	0.90196457 	1.1335165
1.763606 	0.89910488 	1.13213
1.7646077 	0.89624518 	1.1307435
1.7656093 	0.89338548 	1.1293571
1.766611 	0.89052579 	1.1279706
1.7676127 	0.88766609 	1.1265841
1.7686144 	0.88480639 	1.1251977
1.769616 	0.8819467 	1.1238112
1.7706177 	0.87252431 	1.1215113
1.7716194 	0.86190697 	1.1190451
1.772621 	0.85128963 	1.1165789
1.7736227 	0.84067228 	1.1141127
1.7746244 	0.83005494 	1.1116465
1.775626 	0.81855022 	1.1127008
1.7766277 	0.80685988 	1.1158119
1.7776294 	0.79516954 	1.118923
1.7786311 	0.7834792 	1.1220341
1.7796327 	0.77178886 	1.1251452
1.7806344 	0.76482935 	1.1274587
1.7816361 	0.76463733 	1.1286313
1.7826377 	0.76444531 	1.1298039
1.7836394 	0.76425329 	1.1309765
1.7846411 	0.76406127 	1.1321491
1.7856427 	0.76386924 	1.1333216
1.7866444 	0.76367722 	1.1344942
1.7876461 	0.7634852 	1.1356668
1.7886477 	0.76329318 	1.1368394
1.7896494 	0.76310116 	1.138012
1.7906511 	0.75694012 	1.1390473
1.7916528 	0.74601268 	1.1399731
1.7926544 	0.73508523 	1.1408988
1.7936561 	0.72415779 	1.1418246
1.7946578 	0.71323034 	1.1427503
1.7956594 	0.7023029 	1.143676
1.7966611 	0.69137545 	1.1446018
1.7976628 	0.68044801 	1.1455275
1.7986644 	0.66952057 	1.1464533
1.7996661 	0.65859312 	1.147379
1.8006678 	0.65053669 	1.1482129
1.8016694 	0.64457994 	1.1483495
1.8026711 	0.63862319 	1.148486
1.8036728 	0.63266644 	1.1486225
1.8046745 	0.62670968 	1.148759
1.8056761 	0.62075293 	1.1488956
1.8066778 	0.61479618 	1.1490321
1.8076795 	0.60883943 	1.1491686
1.8086811 	0.60288268 	1.1493051
1.8096828 	0.59692593 	1.1494416
1.8106845 	0.57666478 	1.1534919
1.8116861 	0.55242933 	1.1586296
1.8126878 	0.52819388 	1.1637672
1.8136895 	0.50395843 	1.1689049
1.8146912 	0.47972299 	1.1740426
1.8156928 	0.45548754 	1.1791802
1.8166945 	0.43125209 	1.1843179
1.8176962 	0.40701664 	1.1894555
1.8186978 	0.38278119 	1.1945932
1.8196995 	0.35854575 	1.1997308
1.8207012 	0.3485438 	1.2064778
1.8217028 	0.33971859 	1.2133577
1.8227045 	0.33089339 	1.2202377
1.8237062 	0.32206818 	1.2271177
1.8247078 	0.31324298 	1.2339977
1.8257095 	0.30853731 	1.2439728
1.8267112 	0.30529908 	1.254604
1.8277129 	0.30206085 	1.2652352
1.8287145 	0.29882262 	1.2758664
1.8297162 	0.29558439 	1.2864976
1.8307179 	0.28413846 	1.2940272
1.8317195 	0.2644685 	1.2984491
1.8327212 	0.24479853 	1.302871
1.8337229 	0.22512857 	1.3072928
1.8347245 	0.2054586 	1.3117147
1.8357262 	0.18578864 	1.3161366
1.8367279 	0.16611867 	1.3205585
1.8377295 	0.14644871 	1.3249804
1.8387312 	0.12677875 	1.3294023
1.8397329 	0.10710878 	1.3338241
1.8407346 	0.09451044 	1.3430863
1.8417362 	0.085895338 	1.355075
1.8427379 	0.077280236 	1.3670636
1.8437396 	0.068665135 	1.3790522
1.8447412 	0.060050033 	1.3910408
1.8457429 	0.051434931 	1.4030295
1.8467446 	0.042819829 	1.4150181
1.8477462 	0.034204728 	1.4270067
1.8487479 	0.025589626 	1.4389953
1.8497496 	0.016974524 	1.450984
1.8507513 	0.014043874 	1.4626378
1.8517529 	0.01250665 	1.4742736
1.8527546 	0.010969427 	1.4859094
1.8537563 	0.0094322031 	1.4975451
1.8547579 	0.0078949796 	1.5091809
1.8557596 	0.0063577562 	1.5208167
1.8567613 	0.0048205327 	1.5324525
1.8577629 	0.0032833092 	1.5440883
1.8587646 	0.0017460857 	1.555724
1.8597663 	0.00020886224 	1.5673598
