0.45 	5.6 	1.7 	0.97147378 	1.8333311
0.45 	4.1 	1.5 	0.99975203 	1.2304196
0.45 	2.6 	1.3 	0.99958657 	1.0952749
