1.8016694 0.51270899
1.8026711 0.48631901
