#             x            0.45            0.45            0.45            0.45
#             y             5.6             4.1             2.6             2.6
#             z             1.7             1.5             1.3             1.3
#          Time
             40       1.8889123       2.1544896      0.62293151      0.62293151
           40.1       1.9693107       1.9318783      0.49546731      0.49546731
           40.2       1.9882342       1.6298438      0.41246906      0.41246906
           40.3       2.2043532       1.2007002      0.56471344      0.56471344
           40.4       2.3166653       1.2092893      0.57227597      0.57227597
           40.5       2.2244227       1.5047202      0.57766922      0.57766922
           40.6       1.9572721       1.7919419       1.3663502       1.3663502
           40.7       1.9660044       1.7011663       1.2522211       1.2522211
           40.8       2.0480168        1.286425       1.1453305       1.1453305
           40.9       1.7044312       1.4778353      0.74054688      0.74054688
             41       1.6312808       1.9528698      0.51625975      0.51625975
           41.1       1.8664061       1.8635699      0.59411477      0.59411477
           41.2       2.0621303       2.2984424       0.6771126       0.6771126
           41.3       1.9795006       2.2205059      0.62371807      0.62371807
           41.4       2.0221173       2.0535302      0.85408073      0.85408073
           41.5        1.906102        2.013727      0.83776214      0.83776214
           41.6       1.8915818       1.9269502      0.51021069      0.51021069
           41.7       2.0140474       1.9860906      0.38311285      0.38311285
           41.8       1.9591497       2.0035819      0.26149513      0.26149513
           41.9       1.8863617       2.0195495      0.30925007      0.30925007
             42       1.9564866       2.0069958       1.3214715       1.3214715
           42.1       1.9399015       2.0030653        1.329282        1.329282
           42.2       2.0126573       1.9306882       1.2500962       1.2500962
           42.3        2.313196       2.0308862        0.830032        0.830032
           42.4       2.2488549       2.0273326      0.62024331      0.62024331
           42.5       2.0856909        2.082464      0.46063461      0.46063461
           42.6       2.0879037       2.0368576      0.42237987      0.42237987
           42.7       2.1925173       1.9268759      0.39675492      0.39675492
           42.8       2.1464665       1.9773874        0.362273        0.362273
           42.9       1.9231026        1.861004      0.35731679      0.35731679
             43       1.8033059       1.7974205      0.24795131      0.24795131
           43.1       2.0339693       2.0192759      0.12714787      0.12714787
           43.2       2.0558313       2.0768033      0.29257349      0.29257349
           43.3       2.0378486       2.2009176      0.61094572      0.61094572
           43.4        2.132521       2.2367424      0.58219275      0.58219275
           43.5       2.1058512       2.1366433       1.0148047       1.0148047
           43.6       1.5664101       2.0600738        1.174901        1.174901
           43.7       1.4360134       2.0143064       1.0335585       1.0335585
           43.8       1.5021283       2.1824261      0.87578406      0.87578406
           43.9       1.5775277       2.1260754      0.61689067      0.61689067
             44       1.1208331       2.0949435      0.52990634      0.52990634
           44.1      0.66267131       2.0404703       0.5743413       0.5743413
           44.2      0.63302102       2.0152091      0.51755337      0.51755337
           44.3      0.99514795       1.8861428      0.48374382      0.48374382
           44.4       1.5458613       1.9243319      0.66013677      0.66013677
           44.5       1.8526194       1.8061933       1.3488694       1.3488694
