0.45	5.6	1.7		1.85770953869565
0.45	4.1	1.5		1.92888347608696
0.45	2.6	1.3		0.681714723043478
0.45	2.6	1.3		0.681714723043478
