40	1.8502006	1.9351157	0.65038104
40.1	1.9165787	1.743426	0.54587493
40.2	2.1198117	1.3888359	0.55744614
40.3	2.2717598	1.3440073	0.56970738
40.4	2.0054394	1.5417414	0.74940003
40.5	1.6782206	1.7758943	1.4497791
40.6	1.6573215	1.656271	1.3064074
40.7	1.8333311	1.2304196	1.0952749
40.8	1.6242495	1.4284409	0.72519207
40.9	1.7724725	2.0671877	0.66724917
41	1.531091	1.9554925	0.56287311
