0.45 	5.6 	1.7 	0.99998059 	1.6782206
0.45 	4.1 	1.5 	0.98005895 	1.7758943
0.45 	2.6 	1.3 	0.9949135 	1.4497791
