1.8026711 0.51483854
1.8036728 0.48637084
