0.45 	5.6 	1.7 	0.99230889 	1.6573215
0.45 	4.1 	1.5 	0.9653183 	1.656271
0.45 	2.6 	1.3 	0.99067545 	1.3064074
