1.7926544 0.50842022
1.7936561 0.47984873
